 TITLE = "Post Processing Tecplot"
 VARIABLES = "X", "Y", "U"
 ZONE T="BIG ZONE", I=          65 , J=          65 , DATAPACKING=POINT
   0.00000000       0.00000000       0.00000000    
   9.81747732E-02   0.00000000      0.382683456    
  0.196349546       0.00000000      0.707106829    
  0.294524312       0.00000000      0.923879504    
  0.392699093       0.00000000       1.00000000    
  0.490873873       0.00000000      0.923879504    
  0.589048624       0.00000000      0.707106769    
  0.687223434       0.00000000      0.382683277    
  0.785398185       0.00000000      -8.74227695E-08
  0.883572936       0.00000000     -0.382683396    
  0.981747746       0.00000000     -0.707106888    
   1.07992256       0.00000000     -0.923879683    
   1.17809725       0.00000000      -1.00000000    
   1.27627206       0.00000000     -0.923879385    
   1.37444687       0.00000000     -0.707106531    
   1.47262156       0.00000000     -0.382683396    
   1.57079637       0.00000000       1.74845539E-07
   1.66897118       0.00000000      0.382683754    
   1.76714587       0.00000000      0.707106769    
   1.86532068       0.00000000      0.923879564    
   1.96349549       0.00000000       1.00000000    
   2.06167030       0.00000000      0.923879325    
   2.15984511       0.00000000      0.707106292    
   2.25801969       0.00000000      0.382683575    
   2.35619450       0.00000000      -2.38497613E-08
   2.45436931       0.00000000     -0.382683635    
   2.55254412       0.00000000     -0.707107008    
   2.65071893       0.00000000     -0.923879743    
   2.74889374       0.00000000      -1.00000000    
   2.84706831       0.00000000     -0.923879623    
   2.94524312       0.00000000     -0.707106769    
   3.04341793       0.00000000     -0.382683277    
   3.14159274       0.00000000       3.49691078E-07
   3.23976755       0.00000000      0.382683933    
   3.33794236       0.00000000      0.707107246    
   3.43611717       0.00000000      0.923879862    
   3.53429174       0.00000000       1.00000000    
   3.63246655       0.00000000      0.923879385    
   3.73064137       0.00000000      0.707106531    
   3.82881618       0.00000000      0.382682949    
   3.92699099       0.00000000      -6.75532476E-07
   4.02516556       0.00000000     -0.382683337    
   4.12334061       0.00000000     -0.707107484    
   4.22151518       0.00000000     -0.923879564    
   4.31969023       0.00000000      -1.00000000    
   4.41786480       0.00000000     -0.923879325    
   4.51603937       0.00000000     -0.707106948    
   4.61421442       0.00000000     -0.382682651    
   4.71238899       0.00000000       4.76995226E-08
   4.81056404       0.00000000      0.382684529    
   4.90873861       0.00000000      0.707107067    
   5.00691366       0.00000000      0.923880100    
   5.10508823       0.00000000       1.00000000    
   5.20326281       0.00000000      0.923879623    
   5.30143785       0.00000000      0.707106054    
   5.39961243       0.00000000      0.382683247    
   5.49778748       0.00000000      -1.32721516E-06
   5.59596205       0.00000000     -0.382683933    
   5.69413662       0.00000000     -0.707106590    
   5.79231167       0.00000000     -0.923879862    
   5.89048624       0.00000000      -1.00000000    
   5.98866129       0.00000000     -0.923879087    
   6.08683586       0.00000000     -0.707106531    
   6.18501091       0.00000000     -0.382682055    
   6.28318548       0.00000000       0.00000000    
   0.00000000       9.81747732E-02  0.382683456    
   9.81747732E-02   9.81747732E-02  0.519365668    
  0.196349546       9.81747732E-02  0.656047940    
  0.294524312       9.81747732E-02  0.746507406    
  0.392699093       9.81747732E-02  0.759727597    
  0.490873873       9.81747732E-02  0.681992531    
  0.589048624       9.81747732E-02  0.517196059    
  0.687223434       9.81747732E-02  0.285037875    
  0.785398185       9.81747732E-02   1.72055140E-02
  0.883572936       9.81747732E-02 -0.248007461    
  0.981747746       9.81747732E-02 -0.471908629    
   1.07992256       9.81747732E-02 -0.621553659    
   1.17809725       9.81747732E-02 -0.674935699    
   1.27627206       9.81747732E-02 -0.624454141    
   1.37444687       9.81747732E-02 -0.478151262    
   1.47262156       9.81747732E-02 -0.258542776    
   1.57079637       9.81747732E-02   7.73691339E-04
   1.66897118       9.81747732E-02  0.260207921    
   1.76714587       9.81747732E-02  0.480187595    
   1.86532068       9.81747732E-02  0.627171576    
   1.96349549       9.81747732E-02  0.678748012    
   2.06167030       9.81747732E-02  0.627040982    
   2.15984511       9.81747732E-02  0.479906678    
   2.25801969       9.81747732E-02  0.259734035    
   2.35619450       9.81747732E-02   3.46878624E-05
   2.45436931       9.81747732E-02 -0.259659380    
   2.55254412       9.81747732E-02 -0.479815453    
   2.65071893       9.81747732E-02 -0.626919150    
   2.74889374       9.81747732E-02 -0.678576708    
   2.84706831       9.81747732E-02 -0.626924872    
   2.94524312       9.81747732E-02 -0.479827851    
   3.04341793       9.81747732E-02 -0.259680361    
   3.14159274       9.81747732E-02   1.81910389E-06
   3.23976755       9.81747732E-02  0.259684235    
   3.33794236       9.81747732E-02  0.479832351    
   3.43611717       9.81747732E-02  0.626930475    
   3.53429174       9.81747732E-02  0.678584337    
   3.63246655       9.81747732E-02  0.626929998    
   3.73064137       9.81747732E-02  0.479831308    
   3.82881618       9.81747732E-02  0.259682626    
   3.92699099       9.81747732E-02  -2.36781077E-07
   4.02516556       9.81747732E-02 -0.259682953    
   4.12334061       9.81747732E-02 -0.479831576    
   4.22151518       9.81747732E-02 -0.626929939    
   4.31969023       9.81747732E-02 -0.678583980    
   4.41786480       9.81747732E-02 -0.626929760    
   4.51603937       9.81747732E-02 -0.479831219    
   4.61421442       9.81747732E-02 -0.259682506    
   4.71238899       9.81747732E-02   2.98087542E-07
   4.81056404       9.81747732E-02  0.259683341    
   4.90873861       9.81747732E-02  0.479831666    
   5.00691366       9.81747732E-02  0.626930118    
   5.10508823       9.81747732E-02  0.678584218    
   5.20326281       9.81747732E-02  0.626929700    
   5.30143785       9.81747732E-02  0.479831010    
   5.39961243       9.81747732E-02  0.259682477    
   5.49778748       9.81747732E-02  -5.63970275E-07
   5.59596205       9.81747732E-02 -0.259683192    
   5.69413662       9.81747732E-02 -0.479831427    
   5.79231167       9.81747732E-02 -0.626929998    
   5.89048624       9.81747732E-02 -0.678583860    
   5.98866129       9.81747732E-02 -0.626929641    
   6.08683586       9.81747732E-02 -0.479831129    
   6.18501091       9.81747732E-02 -0.259682417    
   6.28318548       9.81747732E-02   0.00000000    
   0.00000000      0.196349546      0.707106829    
   9.81747732E-02  0.196349546      0.656048059    
  0.196349546      0.196349546      0.651211679    
  0.294524312      0.196349546      0.646375477    
  0.392699093      0.196349546      0.610409856    
  0.490873873      0.196349546      0.527167201    
  0.589048624      0.196349546      0.394646734    
  0.687223434      0.196349546      0.223066673    
  0.785398185      0.196349546       3.17916907E-02
  0.883572936      0.196349546     -0.154643297    
  0.981747746      0.196349546     -0.310966551    
   1.07992256      0.196349546     -0.415490538    
   1.17809725      0.196349546     -0.453735173    
   1.27627206      0.196349546     -0.420850158    
   1.37444687      0.196349546     -0.322501689    
   1.47262156      0.196349546     -0.174110144    
   1.57079637      0.196349546       1.42944267E-03
   1.66897118      0.196349546      0.177186623    
   1.76714587      0.196349546      0.326264054    
   1.86532068      0.196349546      0.425871193    
   1.96349549      0.196349546      0.460779190    
   2.06167030      0.196349546      0.425630063    
   2.15984511      0.196349546      0.325745285    
   2.25801969      0.196349546      0.176311195    
   2.35619450      0.196349546       6.42016530E-05
   2.45436931      0.196349546     -0.176173106    
   2.55254412      0.196349546     -0.325576305    
   2.65071893      0.196349546     -0.425404578    
   2.74889374      0.196349546     -0.460462570    
   2.84706831      0.196349546     -0.425415337    
   2.94524312      0.196349546     -0.325599492    
   3.04341793      0.196349546     -0.176212251    
   3.14159274      0.196349546       3.07676601E-06
   3.23976755      0.196349546      0.176218778    
   3.33794236      0.196349546      0.325607419    
   3.43611717      0.196349546      0.425425529    
   3.53429174      0.196349546      0.460476875    
   3.63246655      0.196349546      0.425424963    
   3.73064137      0.196349546      0.325606018    
   3.82881618      0.196349546      0.176216617    
   3.92699099      0.196349546      -6.31277288E-08
   4.02516556      0.196349546     -0.176216677    
   4.12334061      0.196349546     -0.325605959    
   4.22151518      0.196349546     -0.425424576    
   4.31969023      0.196349546     -0.460476190    
   4.41786480      0.196349546     -0.425424457    
   4.51603937      0.196349546     -0.325605720    
   4.61421442      0.196349546     -0.176216394    
   4.71238899      0.196349546       2.40478016E-07
   4.81056404      0.196349546      0.176216945    
   4.90873861      0.196349546      0.325606108    
   5.00691366      0.196349546      0.425424755    
   5.10508823      0.196349546      0.460476249    
   5.20326281      0.196349546      0.425424546    
   5.30143785      0.196349546      0.325605661    
   5.39961243      0.196349546      0.176216394    
   5.49778748      0.196349546      -2.80632804E-07
   5.59596205      0.196349546     -0.176216811    
   5.69413662      0.196349546     -0.325605929    
   5.79231167      0.196349546     -0.425424606    
   5.89048624      0.196349546     -0.460476160    
   5.98866129      0.196349546     -0.425424457    
   6.08683586      0.196349546     -0.325605661    
   6.18501091      0.196349546     -0.176216438    
   6.28318548      0.196349546       0.00000000    
   0.00000000      0.294524312      0.923879504    
   9.81747732E-02  0.294524312      0.746507585    
  0.196349546      0.294524312      0.646375477    
  0.294524312      0.294524312      0.577372551    
  0.392699093      0.294524312      0.508369684    
  0.490873873      0.294524312      0.421619415    
  0.589048624      0.294524312      0.311157256    
  0.687223434      0.294524312      0.180790320    
  0.785398185      0.294524312       4.15378697E-02
  0.883572936      0.294524312      -9.13908556E-02
  0.981747746      0.294524312     -0.201823726    
   1.07992256      0.294524312     -0.275706887    
   1.17809725      0.294524312     -0.303664178    
   1.27627206      0.294524312     -0.282709539    
   1.37444687      0.294524312     -0.216895193    
   1.47262156      0.294524312     -0.116825603    
   1.57079637      0.294524312       1.86761748E-03
   1.66897118      0.294524312      0.120845087    
   1.76714587      0.294524312      0.221810922    
   1.86532068      0.294524312      0.289269775    
   1.96349549      0.294524312      0.312867701    
   2.06167030      0.294524312      0.288954884    
   2.15984511      0.294524312      0.221133158    
   2.25801969      0.294524312      0.119701445    
   2.35619450      0.294524312       8.38849373E-05
   2.45436931      0.294524312     -0.119520836    
   2.55254412      0.294524312     -0.220912322    
   2.65071893      0.294524312     -0.288660049    
   2.74889374      0.294524312     -0.312453926    
   2.84706831      0.294524312     -0.288674146    
   2.94524312      0.294524312     -0.220942661    
   3.04341793      0.294524312     -0.119572103    
   3.14159274      0.294524312       3.89991374E-06
   3.23976755      0.294524312      0.119580500    
   3.33794236      0.294524312      0.220952779    
   3.43611717      0.294524312      0.288687557    
   3.53429174      0.294524312      0.312472671    
   3.63246655      0.294524312      0.288686842    
   3.73064137      0.294524312      0.220951259    
   3.82881618      0.294524312      0.119577929    
   3.92699099      0.294524312       5.87117768E-08
   4.02516556      0.294524312     -0.119577765    
   4.12334061      0.294524312     -0.220950916    
   4.22151518      0.294524312     -0.288686246    
   4.31969023      0.294524312     -0.312471718    
   4.41786480      0.294524312     -0.288686186    
   4.51603937      0.294524312     -0.220950782    
   4.61421442      0.294524312     -0.119577609    
   4.71238899      0.294524312       1.99023489E-07
   4.81056404      0.294524312      0.119577967    
   4.90873861      0.294524312      0.220951110    
   5.00691366      0.294524312      0.288686454    
   5.10508823      0.294524312      0.312471867    
   5.20326281      0.294524312      0.288686275    
   5.30143785      0.294524312      0.220950857    
   5.39961243      0.294524312      0.119577654    
   5.49778748      0.294524312      -1.14403647E-07
   5.59596205      0.294524312     -0.119577862    
   5.69413662      0.294524312     -0.220950946    
   5.79231167      0.294524312     -0.288686305    
   5.89048624      0.294524312     -0.312471807    
   5.98866129      0.294524312     -0.288686216    
   6.08683586      0.294524312     -0.220950812    
   6.18501091      0.294524312     -0.119577676    
   6.28318548      0.294524312       0.00000000    
   0.00000000      0.392699093       1.00000000    
   9.81747732E-02  0.392699093      0.759727538    
  0.196349546      0.392699093      0.610409915    
  0.294524312      0.392699093      0.508369684    
  0.392699093      0.392699093      0.424076587    
  0.490873873      0.392699093      0.339783728    
  0.589048624      0.392699093      0.247572318    
  0.687223434      0.392699093      0.147399545    
  0.785398185      0.392699093       4.49602567E-02
  0.883572936      0.392699093      -5.06342277E-02
  0.981747746      0.392699093     -0.129230604    
   1.07992256      0.392699093     -0.181849092    
   1.17809725      0.392699093     -0.202505052    
   1.27627206      0.392699093     -0.189428732    
   1.37444687      0.392699093     -0.145543873    
   1.47262156      0.392699093      -7.81646371E-02
   1.57079637      0.392699093       2.02144030E-03
   1.66897118      0.392699093       8.25152993E-02
   1.76714587      0.392699093      0.150864527    
   1.86532068      0.392699093      0.196529493    
   1.96349549      0.392699093      0.212466851    
   2.06167030      0.392699093      0.196188658    
   2.15984511      0.392699093      0.150131032    
   2.25801969      0.392699093       8.12774152E-02
   2.35619450      0.392699093       9.08306829E-05
   2.45436931      0.392699093      -8.10819566E-02
   2.55254412      0.392699093     -0.149891928    
   2.65071893      0.392699093     -0.195869520    
   2.74889374      0.392699093     -0.212019071    
   2.84706831      0.392699093     -0.195884809    
   2.94524312      0.392699093     -0.149924815    
   3.04341793      0.392699093      -8.11374858E-02
   3.14159274      0.392699093       4.18619993E-06
   3.23976755      0.392699093       8.11464339E-02
   3.33794236      0.392699093      0.149935752    
   3.43611717      0.392699093      0.195899218    
   3.53429174      0.392699093      0.212039262    
   3.63246655      0.392699093      0.195898458    
   3.73064137      0.392699093      0.149934128    
   3.82881618      0.392699093       8.11437741E-02
   3.92699099      0.392699093       1.15559558E-07
   4.02516556      0.392699093      -8.11435059E-02
   4.12334061      0.392699093     -0.149933711    
   4.22151518      0.392699093     -0.195897847    
   4.31969023      0.392699093     -0.212038293    
   4.41786480      0.392699093     -0.195897803    
   4.51603937      0.392699093     -0.149933651    
   4.61421442      0.392699093      -8.11434388E-02
   4.71238899      0.392699093       1.30738840E-07
   4.81056404      0.392699093       8.11437070E-02
   4.90873861      0.392699093      0.149933875    
   5.00691366      0.392699093      0.195897996    
   5.10508823      0.392699093      0.212038413    
   5.20326281      0.392699093      0.195897862    
   5.30143785      0.392699093      0.149933711    
   5.39961243      0.392699093       8.11435059E-02
   5.49778748      0.392699093      -4.00747950E-08
   5.59596205      0.392699093      -8.11436176E-02
   5.69413662      0.392699093     -0.149933785    
   5.79231167      0.392699093     -0.195897907    
   5.89048624      0.392699093     -0.212038368    
   5.98866129      0.392699093     -0.195897877    
   6.08683586      0.392699093     -0.149933726    
   6.18501091      0.392699093      -8.11435357E-02
   6.28318548      0.392699093       0.00000000    
   0.00000000      0.490873873      0.923879504    
   9.81747732E-02  0.490873873      0.681992531    
  0.196349546      0.490873873      0.527167201    
  0.294524312      0.490873873      0.421619445    
  0.392699093      0.490873873      0.339783698    
  0.490873873      0.490873873      0.265866309    
  0.589048624      0.490873873      0.191948980    
  0.687223434      0.490873873      0.116275266    
  0.785398185      0.490873873       4.15378772E-02
  0.883572936      0.490873873      -2.68757828E-02
  0.981747746      0.490873873      -8.26154277E-02
   1.07992256      0.490873873     -0.119953737    
   1.17809725      0.490873873     -0.135078207    
   1.27627206      0.490873873     -0.126956463    
   1.37444687      0.490873873      -9.76869240E-02
   1.47262156      0.490873873      -5.23105934E-02
   1.57079637      0.490873873       1.86759338E-03
   1.66897118      0.490873873       5.63299879E-02
   1.76714587      0.490873873      0.102602623    
   1.86532068      0.490873873      0.133516669    
   1.96349549      0.490873873      0.144281775    
   2.06167030      0.490873873      0.133201793    
   2.15984511      0.490873873      0.101924933    
   2.25801969      0.490873873       5.51863983E-02
   2.35619450      0.490873873       8.39160493E-05
   2.45436931      0.490873873      -5.50057702E-02
   2.55254412      0.490873873     -0.101704016    
   2.65071893      0.490873873     -0.132906914    
   2.74889374      0.490873873     -0.143868059    
   2.84706831      0.490873873     -0.132921040    
   2.94524312      0.490873873     -0.101734422    
   3.04341793      0.490873873      -5.50570823E-02
   3.14159274      0.490873873       3.84199120E-06
   3.23976755      0.490873873       5.50653823E-02
   3.33794236      0.490873873      0.101744473    
   3.43611717      0.490873873      0.132934421    
   3.53429174      0.490873873      0.143886670    
   3.63246655      0.490873873      0.132933736    
   3.73064137      0.490873873      0.101743013    
   3.82881618      0.490873873       5.50629608E-02
   3.92699099      0.490873873       1.60864715E-07
   4.02516556      0.490873873      -5.50626256E-02
   4.12334061      0.490873873     -0.101742558    
   4.22151518      0.490873873     -0.132933080    
   4.31969023      0.490873873     -0.143885732    
   4.41786480      0.490873873     -0.132933065    
   4.51603937      0.490873873     -0.101742528    
   4.61421442      0.490873873      -5.50625995E-02
   4.71238899      0.490873873       1.19061035E-07
   4.81056404      0.490873873       5.50628453E-02
   4.90873861      0.490873873      0.101742797    
   5.00691366      0.490873873      0.132933289    
   5.10508823      0.490873873      0.143885925    
   5.20326281      0.490873873      0.132933229    
   5.30143785      0.490873873      0.101742677    
   5.39961243      0.490873873       5.50627559E-02
   5.49778748      0.490873873       6.76999434E-08
   5.59596205      0.490873873      -5.50626852E-02
   5.69413662      0.490873873     -0.101742618    
   5.79231167      0.490873873     -0.132933155    
   5.89048624      0.490873873     -0.143885791    
   5.98866129      0.490873873     -0.132933140    
   6.08683586      0.490873873     -0.101742610    
   6.18501091      0.490873873      -5.50627038E-02
   6.28318548      0.490873873       0.00000000    
   0.00000000      0.589048624      0.707106769    
   9.81747732E-02  0.589048624      0.517195940    
  0.196349546      0.589048624      0.394646734    
  0.294524312      0.589048624      0.311157197    
  0.392699093      0.589048624      0.247572288    
  0.490873873      0.589048624      0.191948950    
  0.589048624      0.589048624      0.138081819    
  0.687223434      0.589048624       8.42147544E-02
  0.785398185      0.589048624       3.17917056E-02
  0.883572936      0.589048624      -1.57913342E-02
  0.981747746      0.589048624      -5.44015914E-02
   1.07992256      0.589048624      -8.02723095E-02
   1.17809725      0.589048624      -9.08975527E-02
   1.27627206      0.589048624      -8.56319293E-02
   1.37444687      0.589048624      -6.59368187E-02
   1.47262156      0.589048624      -3.52582633E-02
   1.57079637      0.589048624       1.42935815E-03
   1.66897118      0.589048624       3.83346491E-02
   1.76714587      0.589048624       6.96990713E-02
   1.86532068      0.589048624       9.06529650E-02
   1.96349549      0.589048624       9.79416147E-02
   2.06167030      0.589048624       9.04119536E-02
   2.15984511      0.589048624       6.91804290E-02
   2.25801969      0.589048624       3.74593511E-02
   2.35619450      0.589048624       6.42333616E-05
   2.45436931      0.589048624      -3.73210981E-02
   2.55254412      0.589048624      -6.90113306E-02
   2.65071893      0.589048624      -9.01862383E-02
   2.74889374      0.589048624      -9.76249501E-02
   2.84706831      0.589048624      -9.01970640E-02
   2.94524312      0.589048624      -6.90345839E-02
   3.04341793      0.589048624      -3.73603739E-02
   3.14159274      0.589048624       2.97377164E-06
   3.23976755      0.589048624       3.73667143E-02
   3.33794236      0.589048624       6.90423474E-02
   3.43611717      0.589048624       9.02072787E-02
   3.53429174      0.589048624       9.76392925E-02
   3.63246655      0.589048624       9.02067721E-02
   3.73064137      0.589048624       6.90412521E-02
   3.82881618      0.589048624       3.73649001E-02
   3.92699099      0.589048624       1.59809758E-07
   4.02516556      0.589048624      -3.73645574E-02
   4.12334061      0.589048624      -6.90408275E-02
   4.22151518      0.589048624      -9.02062133E-02
   4.31969023      0.589048624      -9.76385176E-02
   4.41786480      0.589048624      -9.02061984E-02
   4.51603937      0.589048624      -6.90408051E-02
   4.61421442      0.589048624      -3.73645537E-02
   4.71238899      0.589048624       1.17728675E-07
   4.81056404      0.589048624       3.73648182E-02
   4.90873861      0.589048624       6.90410584E-02
   5.00691366      0.589048624       9.02064443E-02
   5.10508823      0.589048624       9.76387262E-02
   5.20326281      0.589048624       9.02064070E-02
   5.30143785      0.589048624       6.90410212E-02
   5.39961243      0.589048624       3.73647809E-02
   5.49778748      0.589048624       1.49275650E-07
   5.59596205      0.589048624      -3.73645648E-02
   5.69413662      0.589048624      -6.90408424E-02
   5.79231167      0.589048624      -9.02062356E-02
   5.89048624      0.589048624      -9.76385623E-02
   5.98866129      0.589048624      -9.02062729E-02
   6.08683586      0.589048624      -6.90409020E-02
   6.18501091      0.589048624      -3.73646617E-02
   6.28318548      0.589048624       0.00000000    
   0.00000000      0.687223434      0.382683277    
   9.81747732E-02  0.687223434      0.285037816    
  0.196349546      0.687223434      0.223066688    
  0.294524312      0.687223434      0.180790260    
  0.392699093      0.687223434      0.147399530    
  0.490873873      0.687223434      0.116275243    
  0.589048624      0.687223434       8.42147395E-02
  0.687223434      0.687223434       5.07101454E-02
  0.785398185      0.687223434       1.72055513E-02
  0.883572936      0.687223434      -1.36796571E-02
  0.981747746      0.687223434      -3.89273241E-02
   1.07992256      0.687223434      -5.58363050E-02
   1.17809725      0.687223434      -6.26077577E-02
   1.27627206      0.687223434      -5.87369204E-02
   1.37444687      0.687223434      -4.51701283E-02
   1.47262156      0.687223434      -2.42151078E-02
   1.57079637      0.687223434       7.73598615E-04
   1.66897118      0.687223434       2.58799791E-02
   1.76714587      0.687223434       4.72063087E-02
   1.86532068      0.687223434       6.14542328E-02
   1.96349549      0.687223434       6.64200187E-02
   2.06167030      0.687223434       6.13238066E-02
   2.15984511      0.687223434       4.69255894E-02
   2.25801969      0.687223434       2.54062861E-02
   2.35619450      0.687223434       3.47646455E-05
   2.45436931      0.687223434      -2.53314823E-02
   2.55254412      0.687223434      -4.68340628E-02
   2.65071893      0.687223434      -6.12016693E-02
   2.74889374      0.687223434      -6.62486106E-02
   2.84706831      0.687223434      -6.12075031E-02
   2.94524312      0.687223434      -4.68466431E-02
   3.04341793      0.687223434      -2.53526960E-02
   3.14159274      0.687223434       1.61600360E-06
   3.23976755      0.687223434       2.53562164E-02
   3.33794236      0.687223434       4.68508564E-02
   3.43611717      0.687223434       6.12131320E-02
   3.53429174      0.687223434       6.62564039E-02
   3.63246655      0.687223434       6.12128526E-02
   3.73064137      0.687223434       4.68502752E-02
   3.82881618      0.687223434       2.53552329E-02
   3.92699099      0.687223434       1.31870920E-07
   4.02516556      0.687223434      -2.53549628E-02
   4.12334061      0.687223434      -4.68499660E-02
   4.22151518      0.687223434      -6.12124614E-02
   4.31969023      0.687223434      -6.62558898E-02
   4.41786480      0.687223434      -6.12124503E-02
   4.51603937      0.687223434      -4.68499362E-02
   4.61421442      0.687223434      -2.53549442E-02
   4.71238899      0.687223434       1.16239320E-07
   4.81056404      0.687223434       2.53552068E-02
   4.90873861      0.687223434       4.68502082E-02
   5.00691366      0.687223434       6.12126999E-02
   5.10508823      0.687223434       6.62561283E-02
   5.20326281      0.687223434       6.12126924E-02
   5.30143785      0.687223434       4.68502119E-02
   5.39961243      0.687223434       2.53552273E-02
   5.49778748      0.687223434       2.08396102E-07
   5.59596205      0.687223434      -2.53549162E-02
   5.69413662      0.687223434      -4.68499400E-02
   5.79231167      0.687223434      -6.12124652E-02
   5.89048624      0.687223434      -6.62559196E-02
   5.98866129      0.687223434      -6.12125024E-02
   6.08683586      0.687223434      -4.68500294E-02
   6.18501091      0.687223434      -2.53550634E-02
   6.28318548      0.687223434       0.00000000    
   0.00000000      0.785398185      -8.74227695E-08
   9.81747732E-02  0.785398185       1.72054954E-02
  0.196349546      0.785398185       3.17916386E-02
  0.294524312      0.785398185       4.15378362E-02
  0.392699093      0.785398185       4.49602082E-02
  0.490873873      0.785398185       4.15378548E-02
  0.589048624      0.785398185       3.17916833E-02
  0.687223434      0.785398185       1.72055475E-02
  0.785398185      0.785398185       1.90505300E-09
  0.883572936      0.785398185      -1.72055550E-02
  0.981747746      0.785398185      -3.17916870E-02
   1.07992256      0.785398185      -4.15378697E-02
   1.17809725      0.785398185      -4.49602455E-02
   1.27627206      0.785398185      -4.15378585E-02
   1.37444687      0.785398185      -3.17916945E-02
   1.47262156      0.785398185      -1.72055233E-02
   1.57079637      0.785398185      -8.52777582E-09
   1.66897118      0.785398185       1.72055867E-02
   1.76714587      0.785398185       3.17916721E-02
   1.86532068      0.785398185       4.15378995E-02
   1.96349549      0.785398185       4.49602120E-02
   2.06167030      0.785398185       4.15378809E-02
   2.15984511      0.785398185       3.17916684E-02
   2.25801969      0.785398185       1.72055587E-02
   2.35619450      0.785398185      -1.57573474E-08
   2.45436931      0.785398185      -1.72055420E-02
   2.55254412      0.785398185      -3.17916796E-02
   2.65071893      0.785398185      -4.15378511E-02
   2.74889374      0.785398185      -4.49601971E-02
   2.84706831      0.785398185      -4.15378325E-02
   2.94524312      0.785398185      -3.17916200E-02
   3.04341793      0.785398185      -1.72054879E-02
   3.14159274      0.785398185       9.56681632E-08
   3.23976755      0.785398185       1.72056295E-02
   3.33794236      0.785398185       3.17918099E-02
   3.43611717      0.785398185       4.15379629E-02
   3.53429174      0.785398185       4.49603647E-02
   3.63246655      0.785398185       4.15379666E-02
   3.73064137      0.785398185       3.17918174E-02
   3.82881618      0.785398185       1.72056593E-02
   3.92699099      0.785398185       1.23572477E-07
   4.02516556      0.785398185      -1.72054153E-02
   4.12334061      0.785398185      -3.17915678E-02
   4.22151518      0.785398185      -4.15377133E-02
   4.31969023      0.785398185      -4.49601002E-02
   4.41786480      0.785398185      -4.15376909E-02
   4.51603937      0.785398185      -3.17915268E-02
   4.61421442      0.785398185      -1.72053613E-02
   4.71238899      0.785398185       1.77133103E-07
   4.81056404      0.785398185       1.72057413E-02
   4.90873861      0.785398185       3.17919180E-02
   5.00691366      0.785398185       4.15380858E-02
   5.10508823      0.785398185       4.49604802E-02
   5.20326281      0.785398185       4.15381007E-02